# Thermal properties / unit cell (natom)

unit:
  temperature:   K
  free_energy:   kJ/mol
  entropy:       J/K/mol
  heat_capacity: J/K/mol

natom:   144
zero_point_energy:    2379.4249583
high_T_entropy:       9057.4672482

thermal_properties:
- temperature:         0.0000000
  free_energy:      2379.4249583
  entropy:             0.0000000
  heat_capacity:       0.0000000
  energy:           2379.4249583

- temperature:        10.0000000
  free_energy:      2379.4115859
  entropy:             4.3846435
  heat_capacity:       9.9862266
  energy:           2379.4554323

- temperature:        20.0000000
  free_energy:      2379.2985549
  entropy:            20.0768933
  heat_capacity:      42.1801915
  energy:           2379.7000927

- temperature:        30.0000000
  free_energy:      2378.9767824
  entropy:            45.7206979
  heat_capacity:      89.2852048
  energy:           2380.3484033

- temperature:        40.0000000
  free_energy:      2378.3591565
  entropy:            78.8938471
  heat_capacity:     145.2437606
  energy:           2381.5149104

- temperature:        50.0000000
  free_energy:      2377.3795441
  entropy:           117.8903091
  heat_capacity:     207.4231295
  energy:           2383.2740596

- temperature:        60.0000000
  free_energy:      2375.9860006
  entropy:           161.4965530
  heat_capacity:     273.3340227
  energy:           2385.6757938

- temperature:        70.0000000
  free_energy:      2374.1377057
  entropy:           208.6797140
  heat_capacity:     340.6349510
  energy:           2388.7452857

- temperature:        80.0000000
  free_energy:      2371.8034624
  entropy:           258.5517381
  heat_capacity:     407.6943443
  energy:           2392.4876015

- temperature:        90.0000000
  free_energy:      2368.9601305
  entropy:           310.3914848
  heat_capacity:     473.6285152
  energy:           2396.8953641

- temperature:       100.0000000
  free_energy:      2365.5909445
  entropy:           363.6424173
  heat_capacity:     538.0763739
  energy:           2401.9551862

- temperature:       110.0000000
  free_energy:      2361.6839778
  entropy:           417.8882970
  heat_capacity:     600.9680407
  energy:           2407.6516904

- temperature:       120.0000000
  free_energy:      2357.2308938
  entropy:           472.8222710
  heat_capacity:     662.3667926
  energy:           2413.9695663

- temperature:       130.0000000
  free_energy:      2352.2259978
  entropy:           528.2185387
  heat_capacity:     722.3799208
  energy:           2420.8944078

- temperature:       140.0000000
  free_energy:      2346.6655445
  entropy:           583.9097352
  heat_capacity:     781.1152346
  energy:           2428.4129074

- temperature:       150.0000000
  free_energy:      2340.5472424
  entropy:           639.7701041
  heat_capacity:     838.6634642
  energy:           2436.5127580

- temperature:       160.0000000
  free_energy:      2333.8699015
  entropy:           695.7034466
  heat_capacity:     895.0938952
  energy:           2445.1824529

- temperature:       170.0000000
  free_energy:      2326.6331822
  entropy:           751.6346734
  heat_capacity:     950.4560184
  energy:           2454.4110767

- temperature:       180.0000000
  free_energy:      2318.8374158
  entropy:           807.5039423
  heat_capacity:    1004.7833732
  energy:           2464.1881254

- temperature:       190.0000000
  free_energy:      2310.4834729
  entropy:           863.2626070
  heat_capacity:    1058.0977028
  energy:           2474.5033683

- temperature:       200.0000000
  free_energy:      2301.5726672
  entropy:           918.8704067
  heat_capacity:    1110.4125950
  energy:           2485.3467485

- temperature:       210.0000000
  free_energy:      2292.1066810
  entropy:           974.2935032
  heat_capacity:    1161.7363447
  energy:           2496.7083167

- temperature:       220.0000000
  free_energy:      2282.0875093
  entropy:          1029.5030887
  heat_capacity:    1212.0740425
  energy:           2508.5781888

- temperature:       230.0000000
  free_energy:      2271.5174139
  entropy:          1084.4743824
  heat_capacity:    1261.4290138
  energy:           2520.9465219

- temperature:       240.0000000
  free_energy:      2260.3988879
  entropy:          1139.1858908
  heat_capacity:    1309.8037649
  energy:           2533.8035017

- temperature:       250.0000000
  free_energy:      2248.7346249
  entropy:          1193.6188500
  heat_capacity:    1357.2005786
  energy:           2547.1393374

- temperature:       260.0000000
  free_energy:      2236.5274945
  entropy:          1247.7567963
  heat_capacity:    1403.6218821
  energy:           2560.9442615

- temperature:       270.0000000
  free_energy:      2223.7805209
  entropy:          1301.5852287
  heat_capacity:    1449.0704730
  energy:           2575.2085326

- temperature:       280.0000000
  free_energy:      2210.4968645
  entropy:          1355.0913396
  heat_capacity:    1493.5496636
  energy:           2589.9224396

- temperature:       290.0000000
  free_energy:      2196.6798064
  entropy:          1408.2637971
  heat_capacity:    1537.0633834
  energy:           2605.0763075

- temperature:       300.0000000
  free_energy:      2182.3327343
  entropy:          1461.0925668
  heat_capacity:    1579.6162597
  energy:           2620.6605043

- temperature:       310.0000000
  free_energy:      2167.4591304
  entropy:          1513.5687659
  heat_capacity:    1621.2136863
  energy:           2636.6654478

- temperature:       320.0000000
  free_energy:      2152.0625605
  entropy:          1565.6845419
  heat_capacity:    1661.8618851
  energy:           2653.0816139

- temperature:       330.0000000
  free_energy:      2136.1466641
  entropy:          1617.4329723
  heat_capacity:    1701.5679596
  energy:           2669.8995450

- temperature:       340.0000000
  free_energy:      2119.7151459
  entropy:          1668.8079807
  heat_capacity:    1740.3399374
  energy:           2687.1098593

- temperature:       350.0000000
  free_energy:      2102.7717670
  entropy:          1719.8042655
  heat_capacity:    1778.1868008
  energy:           2704.7032599

- temperature:       360.0000000
  free_energy:      2085.3203383
  entropy:          1770.4172399
  heat_capacity:    1815.1185027
  energy:           2722.6705447

- temperature:       370.0000000
  free_energy:      2067.3647131
  entropy:          1820.6429802
  heat_capacity:    1851.1459665
  energy:           2741.0026157

- temperature:       380.0000000
  free_energy:      2048.9087806
  entropy:          1870.4781810
  heat_capacity:    1886.2810715
  energy:           2759.6904894

- temperature:       390.0000000
  free_energy:      2029.9564604
  entropy:          1919.9201150
  heat_capacity:    1920.5366213
  energy:           2778.7253052

- temperature:       400.0000000
  free_energy:      2010.5116965
  entropy:          1968.9665974
  heat_capacity:    1953.9263005
  energy:           2798.0983355

- temperature:       410.0000000
  free_energy:      1990.5784523
  entropy:          2017.6159537
  heat_capacity:    1986.4646177
  energy:           2817.8009933

- temperature:       420.0000000
  free_energy:      1970.1607052
  entropy:          2065.8669894
  heat_capacity:    2018.1668397
  energy:           2837.8248408

- temperature:       430.0000000
  free_energy:      1949.2624427
  entropy:          2113.7189616
  heat_capacity:    2049.0489169
  energy:           2858.1615962

- temperature:       440.0000000
  free_energy:      1927.8876573
  entropy:          2161.1715525
  heat_capacity:    2079.1274040
  energy:           2878.8031404

- temperature:       450.0000000
  free_energy:      1906.0403427
  entropy:          2208.2248440
  heat_capacity:    2108.4193766
  energy:           2899.7415225

- temperature:       460.0000000
  free_energy:      1883.7244899
  entropy:          2254.8792926
  heat_capacity:    2136.9423467
  energy:           2920.9689646

- temperature:       470.0000000
  free_energy:      1860.9440837
  entropy:          2301.1357062
  heat_capacity:    2164.7141777
  energy:           2942.4778656

- temperature:       480.0000000
  free_energy:      1837.7030989
  entropy:          2346.9952206
  heat_capacity:    2191.7530020
  energy:           2964.2608047

- temperature:       490.0000000
  free_energy:      1814.0054975
  entropy:          2392.4592773
  heat_capacity:    2218.0771398
  energy:           2986.3105434

- temperature:       500.0000000
  free_energy:      1789.8552258
  entropy:          2437.5296018
  heat_capacity:    2243.7050236
  energy:           3008.6200267

- temperature:       510.0000000
  free_energy:      1765.2562113
  entropy:          2482.2081829
  heat_capacity:    2268.6551255
  energy:           3031.1823846

- temperature:       520.0000000
  free_energy:      1740.2123605
  entropy:          2526.4972517
  heat_capacity:    2292.9458910
  energy:           3053.9909314

- temperature:       530.0000000
  free_energy:      1714.7275565
  entropy:          2570.3992629
  heat_capacity:    2316.5956768
  energy:           3077.0391658

- temperature:       540.0000000
  free_energy:      1688.8056566
  entropy:          2613.9168750
  heat_capacity:    2339.6226954
  energy:           3100.3207691

- temperature:       550.0000000
  free_energy:      1662.4504908
  entropy:          2657.0529328
  heat_capacity:    2362.0449648
  energy:           3123.8296039

- temperature:       560.0000000
  free_energy:      1635.6658598
  entropy:          2699.8104501
  heat_capacity:    2383.8802639
  energy:           3147.5597118

- temperature:       570.0000000
  free_energy:      1608.4555331
  entropy:          2742.1925928
  heat_capacity:    2405.1460931
  energy:           3171.5053110

- temperature:       580.0000000
  free_energy:      1580.8232482
  entropy:          2784.2026632
  heat_capacity:    2425.8596411
  energy:           3195.6607928

- temperature:       590.0000000
  free_energy:      1552.7727087
  entropy:          2825.8440854
  heat_capacity:    2446.0377553
  energy:           3220.0207191

- temperature:       600.0000000
  free_energy:      1524.3075835
  entropy:          2867.1203910
  heat_capacity:    2465.6969183
  energy:           3244.5798181

- temperature:       610.0000000
  free_energy:      1495.4315058
  entropy:          2908.0352057
  heat_capacity:    2484.8532276
  energy:           3269.3329813

- temperature:       620.0000000
  free_energy:      1466.1480720
  entropy:          2948.5922368
  heat_capacity:    2503.5223803
  energy:           3294.2752589

- temperature:       630.0000000
  free_energy:      1436.4608411
  entropy:          2988.7952618
  heat_capacity:    2521.7196608
  energy:           3319.4018560

- temperature:       640.0000000
  free_energy:      1406.3733340
  entropy:          3028.6481168
  heat_capacity:    2539.4599322
  energy:           3344.7081288

- temperature:       650.0000000
  free_energy:      1375.8890331
  entropy:          3068.1546868
  heat_capacity:    2556.7576308
  energy:           3370.1895795

- temperature:       660.0000000
  free_energy:      1345.0113815
  entropy:          3107.3188960
  heat_capacity:    2573.6267628
  energy:           3395.8418529

- temperature:       670.0000000
  free_energy:      1313.7437832
  entropy:          3146.1446990
  heat_capacity:    2590.0809040
  energy:           3421.6607315

- temperature:       680.0000000
  free_energy:      1282.0896023
  entropy:          3184.6360724
  heat_capacity:    2606.1332014
  energy:           3447.6421315

- temperature:       690.0000000
  free_energy:      1250.0521632
  entropy:          3222.7970077
  heat_capacity:    2621.7963763
  energy:           3473.7820985

- temperature:       700.0000000
  free_energy:      1217.6347503
  entropy:          3260.6315039
  heat_capacity:    2637.0827295
  energy:           3500.0768030

- temperature:       710.0000000
  free_energy:      1184.8406079
  entropy:          3298.1435616
  heat_capacity:    2652.0041475
  energy:           3526.5225367

- temperature:       720.0000000
  free_energy:      1151.6729405
  entropy:          3335.3371768
  heat_capacity:    2666.5721098
  energy:           3553.1157078

- temperature:       730.0000000
  free_energy:      1118.1349126
  entropy:          3372.2163358
  heat_capacity:    2680.7976978
  energy:           3579.8528377

- temperature:       740.0000000
  free_energy:      1084.2296487
  entropy:          3408.7850101
  heat_capacity:    2694.6916034
  energy:           3606.7305562

- temperature:       750.0000000
  free_energy:      1049.9602341
  entropy:          3445.0471525
  heat_capacity:    2708.2641392
  energy:           3633.7455985

- temperature:       760.0000000
  free_energy:      1015.3297144
  entropy:          3481.0066929
  heat_capacity:    2721.5252485
  energy:           3660.8948010

- temperature:       770.0000000
  free_energy:       980.3410959
  entropy:          3516.6675344
  heat_capacity:    2734.4845162
  energy:           3688.1750974

- temperature:       780.0000000
  free_energy:       944.9973464
  entropy:          3552.0335507
  heat_capacity:    2747.1511796
  energy:           3715.5835160

- temperature:       790.0000000
  free_energy:       909.3013949
  entropy:          3587.1085829
  heat_capacity:    2759.5341393
  energy:           3743.1171754

- temperature:       800.0000000
  free_energy:       873.2561320
  entropy:          3621.8964371
  heat_capacity:    2771.6419706
  energy:           3770.7732817

- temperature:       810.0000000
  free_energy:       836.8644108
  entropy:          3656.4008820
  heat_capacity:    2783.4829344
  energy:           3798.5491252

- temperature:       820.0000000
  free_energy:       800.1290466
  entropy:          3690.6256472
  heat_capacity:    2795.0649886
  energy:           3826.4420774

- temperature:       830.0000000
  free_energy:       763.0528178
  entropy:          3724.5744214
  heat_capacity:    2806.3957984
  energy:           3854.4495876

- temperature:       840.0000000
  free_energy:       725.6384660
  entropy:          3758.2508506
  heat_capacity:    2817.4827478
  energy:           3882.5691805

- temperature:       850.0000000
  free_energy:       687.8886966
  entropy:          3791.6585374
  heat_capacity:    2828.3329498
  energy:           3910.7984534

- temperature:       860.0000000
  free_energy:       649.8061792
  entropy:          3824.8010395
  heat_capacity:    2838.9532570
  energy:           3939.1350732

- temperature:       870.0000000
  free_energy:       611.3935481
  entropy:          3857.6818692
  heat_capacity:    2849.3502714
  energy:           3967.5767743

- temperature:       880.0000000
  free_energy:       572.6534025
  entropy:          3890.3044921
  heat_capacity:    2859.5303547
  energy:           3996.1213556

- temperature:       890.0000000
  free_energy:       533.5883075
  entropy:          3922.6723272
  heat_capacity:    2869.4996375
  energy:           4024.7666787

- temperature:       900.0000000
  free_energy:       494.2007940
  entropy:          3954.7887459
  heat_capacity:    2879.2640288
  energy:           4053.5106654

- temperature:       910.0000000
  free_energy:       454.4933596
  entropy:          3986.6570722
  heat_capacity:    2888.8292247
  energy:           4082.3512953

- temperature:       920.0000000
  free_energy:       414.4684686
  entropy:          4018.2805821
  heat_capacity:    2898.2007176
  energy:           4111.2866042

- temperature:       930.0000000
  free_energy:       374.1285532
  entropy:          4049.6625037
  heat_capacity:    2907.3838039
  energy:           4140.3146817

- temperature:       940.0000000
  free_energy:       333.4760133
  entropy:          4080.8060171
  heat_capacity:    2916.3835926
  energy:           4169.4336693

- temperature:       950.0000000
  free_energy:       292.5132171
  entropy:          4111.7142546
  heat_capacity:    2925.2050127
  energy:           4198.6417590

- temperature:       960.0000000
  free_energy:       251.2425021
  entropy:          4142.3903008
  heat_capacity:    2933.8528207
  energy:           4227.9371909

- temperature:       970.0000000
  free_energy:       209.6661749
  entropy:          4172.8371928
  heat_capacity:    2942.3316081
  energy:           4257.3182520

- temperature:       980.0000000
  free_energy:       167.7865121
  entropy:          4203.0579207
  heat_capacity:    2950.6458077
  energy:           4286.7832744

- temperature:       990.0000000
  free_energy:       125.6057606
  entropy:          4233.0554275
  heat_capacity:    2958.7997004
  energy:           4316.3306338

- temperature:      1000.0000000
  free_energy:        83.1261380
  entropy:          4262.8326099
  heat_capacity:    2966.7974218
  energy:           4345.9587479

