# Thermal properties / unit cell (natom)

unit:
  temperature:   K
  free_energy:   kJ/mol
  entropy:       J/K/mol
  heat_capacity: J/K/mol

natom:   144
zero_point_energy:    2360.5103637
high_T_entropy:       9097.7511144

thermal_properties:
- temperature:         0.0000000
  free_energy:      2360.5103637
  entropy:             0.0000000
  heat_capacity:       0.0000000
  energy:           2360.5103637

- temperature:        10.0000000
  free_energy:      2360.5015318
  entropy:             3.0435384
  heat_capacity:       7.6304006
  energy:           2360.5319672

- temperature:        20.0000000
  free_energy:      2360.4140152
  entropy:            16.3228004
  heat_capacity:      37.5171416
  energy:           2360.7404712

- temperature:        30.0000000
  free_energy:      2360.1406317
  entropy:            39.8915684
  heat_capacity:      83.9646241
  energy:           2361.3373787

- temperature:        40.0000000
  free_energy:      2359.5890916
  entropy:            71.6105840
  heat_capacity:     140.6544145
  energy:           2362.4535150

- temperature:        50.0000000
  free_energy:      2358.6871380
  entropy:           109.7274077
  heat_capacity:     204.2548150
  energy:           2364.1735084

- temperature:        60.0000000
  free_energy:      2357.3776932
  entropy:           152.9048219
  heat_capacity:     271.8785669
  energy:           2366.5519825

- temperature:        70.0000000
  free_energy:      2355.6160038
  entropy:           199.9992231
  heat_capacity:     340.9928128
  energy:           2369.6159495

- temperature:        80.0000000
  free_energy:      2353.3679145
  entropy:           250.0383513
  heat_capacity:     409.8772620
  energy:           2373.3709826

- temperature:        90.0000000
  free_energy:      2350.6080520
  entropy:           302.2390156
  heat_capacity:     477.5999435
  energy:           2377.8095634

- temperature:       100.0000000
  free_energy:      2347.3179567
  entropy:           355.9979549
  heat_capacity:     543.7633297
  energy:           2382.9177521

- temperature:       110.0000000
  free_energy:      2343.4844209
  entropy:           410.8623411
  heat_capacity:     608.2656140
  energy:           2388.6792784

- temperature:       120.0000000
  free_energy:      2339.0981559
  entropy:           466.4957557
  heat_capacity:     671.1441382
  energy:           2395.0776466

- temperature:       130.0000000
  free_energy:      2334.1527826
  entropy:           522.6481951
  heat_capacity:     732.4889530
  energy:           2402.0970480

- temperature:       140.0000000
  free_energy:      2328.6440906
  entropy:           579.1325586
  heat_capacity:     792.4003930
  energy:           2409.7226488

- temperature:       150.0000000
  free_energy:      2322.5695007
  entropy:           635.8072428
  heat_capacity:     850.9707055
  energy:           2417.9405871

- temperature:       160.0000000
  free_energy:      2315.9276761
  entropy:           692.5636104
  heat_capacity:     908.2777681
  energy:           2426.7378538

- temperature:       170.0000000
  free_energy:      2308.7182401
  entropy:           749.3170738
  heat_capacity:     964.3844369
  energy:           2436.1021426

- temperature:       180.0000000
  free_energy:      2300.9415686
  entropy:           806.0007711
  heat_capacity:    1019.3402189
  energy:           2446.0217074

- temperature:       190.0000000
  free_energy:      2292.5986371
  entropy:           862.5610686
  heat_capacity:    1073.1836491
  energy:           2456.4852401

- temperature:       200.0000000
  free_energy:      2283.6909049
  entropy:           918.9543406
  heat_capacity:    1125.9446288
  energy:           2467.4817730

- temperature:       210.0000000
  free_energy:      2274.2202275
  entropy:           975.1446436
  heat_capacity:    1177.6464324
  energy:           2479.0006027

- temperature:       220.0000000
  free_energy:      2264.1887889
  entropy:          1031.1020153
  heat_capacity:    1228.3073147
  energy:           2491.0312323

- temperature:       230.0000000
  free_energy:      2253.5990482
  entropy:          1086.8012157
  heat_capacity:    1277.9417533
  energy:           2503.5633278

- temperature:       240.0000000
  free_energy:      2242.4536971
  entropy:          1142.2207828
  heat_capacity:    1326.5613978
  energy:           2516.5866850

- temperature:       250.0000000
  free_energy:      2230.7556263
  entropy:          1197.3423154
  heat_capacity:    1374.1757990
  energy:           2530.0912051

- temperature:       260.0000000
  free_energy:      2218.5078974
  entropy:          1252.1499215
  heat_capacity:    1420.7929837
  energy:           2544.0668770

- temperature:       270.0000000
  free_energy:      2205.7137205
  entropy:          1306.6297910
  heat_capacity:    1466.4199220
  energy:           2558.5037640

- temperature:       280.0000000
  free_energy:      2192.3764344
  entropy:          1360.7698616
  heat_capacity:    1511.0629191
  energy:           2573.3919957

- temperature:       290.0000000
  free_energy:      2178.4994913
  entropy:          1414.5595560
  heat_capacity:    1554.7279520
  energy:           2588.7217625

- temperature:       300.0000000
  free_energy:      2164.0864424
  entropy:          1467.9895742
  heat_capacity:    1597.4209622
  energy:           2604.4833146

- temperature:       310.0000000
  free_energy:      2149.1409261
  entropy:          1521.0517292
  heat_capacity:    1639.1481096
  energy:           2620.6669622

- temperature:       320.0000000
  free_energy:      2133.6666581
  entropy:          1573.7388159
  heat_capacity:    1679.9159881
  energy:           2637.2630792

- temperature:       330.0000000
  free_energy:      2117.6674212
  entropy:          1626.0445064
  heat_capacity:    1719.7318062
  energy:           2654.2621083

- temperature:       340.0000000
  free_energy:      2101.1470578
  entropy:          1677.9632659
  heat_capacity:    1758.6035303
  energy:           2671.6545682

- temperature:       350.0000000
  free_energy:      2084.1094618
  entropy:          1729.4902843
  heat_capacity:    1796.5399925
  energy:           2689.4310613

- temperature:       360.0000000
  free_energy:      2066.5585718
  entropy:          1780.6214200
  heat_capacity:    1833.5509651
  energy:           2707.5822830

- temperature:       370.0000000
  free_energy:      2048.4983648
  entropy:          1831.3531529
  heat_capacity:    1869.6472021
  energy:           2726.0990314

- temperature:       380.0000000
  free_energy:      2029.9328499
  entropy:          1881.6825448
  heat_capacity:    1904.8404525
  energy:           2744.9722170

- temperature:       390.0000000
  free_energy:      2010.8660631
  entropy:          1931.6072044
  heat_capacity:    1939.1434480
  energy:           2764.1928728

- temperature:       400.0000000
  free_energy:      1991.3020613
  entropy:          1981.1252566
  heat_capacity:    1972.5698679
  energy:           2783.7521639

- temperature:       410.0000000
  free_energy:      1971.2449180
  entropy:          2030.2353140
  heat_capacity:    2005.1342872
  energy:           2803.6413967

- temperature:       420.0000000
  free_energy:      1950.6987181
  entropy:          2078.9364511
  heat_capacity:    2036.8521087
  energy:           2823.8520276

- temperature:       430.0000000
  free_energy:      1929.6675537
  entropy:          2127.2281790
  heat_capacity:    2067.7394856
  energy:           2844.3756707

- temperature:       440.0000000
  free_energy:      1908.1555195
  entropy:          2175.1104219
  heat_capacity:    2097.8132353
  energy:           2865.2041051

- temperature:       450.0000000
  free_energy:      1886.1667092
  entropy:          2222.5834934
  heat_capacity:    2127.0907491
  energy:           2886.3292812

- temperature:       460.0000000
  free_energy:      1863.7052113
  entropy:          2269.6480744
  heat_capacity:    2155.5898999
  energy:           2907.7433255

- temperature:       470.0000000
  free_energy:      1840.7751060
  entropy:          2316.3051905
  heat_capacity:    2183.3289489
  energy:           2929.4385455

- temperature:       480.0000000
  free_energy:      1817.3804613
  entropy:          2362.5561904
  heat_capacity:    2210.3264552
  energy:           2951.4074327

- temperature:       490.0000000
  free_energy:      1793.5253304
  entropy:          2408.4027244
  heat_capacity:    2236.6011880
  energy:           2973.6426653

- temperature:       500.0000000
  free_energy:      1769.2137486
  entropy:          2453.8467232
  heat_capacity:    2262.1720432
  energy:           2996.1371102

- temperature:       510.0000000
  free_energy:      1744.4497304
  entropy:          2498.8903778
  heat_capacity:    2287.0579654
  energy:           3018.8838231

- temperature:       520.0000000
  free_energy:      1719.2372674
  entropy:          2543.5361193
  heat_capacity:    2311.2778754
  energy:           3041.8760495

- temperature:       530.0000000
  free_energy:      1693.5803256
  entropy:          2587.7865995
  heat_capacity:    2334.8506041
  energy:           3065.1072234

- temperature:       540.0000000
  free_energy:      1667.4828435
  entropy:          2631.6446723
  heat_capacity:    2357.7948324
  energy:           3088.5709666

- temperature:       550.0000000
  free_energy:      1640.9487301
  entropy:          2675.1133755
  heat_capacity:    2380.1290376
  energy:           3112.2610866

- temperature:       560.0000000
  free_energy:      1613.9818632
  entropy:          2718.1959133
  heat_capacity:    2401.8714462
  energy:           3136.1715747

- temperature:       570.0000000
  free_energy:      1586.5860879
  entropy:          2760.8956400
  heat_capacity:    2423.0399920
  energy:           3160.2966027

- temperature:       580.0000000
  free_energy:      1558.7652148
  entropy:          2803.2160440
  heat_capacity:    2443.6522809
  energy:           3184.6305204

- temperature:       590.0000000
  free_energy:      1530.5230194
  entropy:          2845.1607327
  heat_capacity:    2463.7255607
  energy:           3209.1678517

- temperature:       600.0000000
  free_energy:      1501.8632402
  entropy:          2886.7334182
  heat_capacity:    2483.2766958
  energy:           3233.9032912

- temperature:       610.0000000
  free_energy:      1472.7895784
  entropy:          2927.9379043
  heat_capacity:    2502.3221467
  energy:           3258.8317000

- temperature:       620.0000000
  free_energy:      1443.3056965
  entropy:          2968.7780733
  heat_capacity:    2520.8779546
  energy:           3283.9481020

- temperature:       630.0000000
  free_energy:      1413.4152181
  entropy:          3009.2578745
  heat_capacity:    2538.9597283
  energy:           3309.2476790

- temperature:       640.0000000
  free_energy:      1383.1217269
  entropy:          3049.3813127
  heat_capacity:    2556.5826364
  energy:           3334.7257671

- temperature:       650.0000000
  free_energy:      1352.4287663
  entropy:          3089.1524386
  heat_capacity:    2573.7614017
  energy:           3360.3778513

- temperature:       660.0000000
  free_energy:      1321.3398389
  entropy:          3128.5753384
  heat_capacity:    2590.5102983
  energy:           3386.1995622

- temperature:       670.0000000
  free_energy:      1289.8584065
  entropy:          3167.6541254
  heat_capacity:    2606.8431522
  energy:           3412.1866706

- temperature:       680.0000000
  free_energy:      1257.9878897
  entropy:          3206.3929316
  heat_capacity:    2622.7733428
  energy:           3438.3350831

- temperature:       690.0000000
  free_energy:      1225.7316674
  entropy:          3244.7959000
  heat_capacity:    2638.3138074
  energy:           3464.6408384

- temperature:       700.0000000
  free_energy:      1193.0930773
  entropy:          3282.8671780
  heat_capacity:    2653.4770467
  energy:           3491.1001019

- temperature:       710.0000000
  free_energy:      1160.0754156
  entropy:          3320.6109106
  heat_capacity:    2668.2751316
  energy:           3517.7091622

- temperature:       720.0000000
  free_energy:      1126.6819371
  entropy:          3358.0312349
  heat_capacity:    2682.7197118
  energy:           3544.4644262

- temperature:       730.0000000
  free_energy:      1092.9158552
  entropy:          3395.1322745
  heat_capacity:    2696.8220249
  energy:           3571.3624156

- temperature:       740.0000000
  free_energy:      1058.7803422
  entropy:          3431.9181348
  heat_capacity:    2710.5929060
  energy:           3598.3997620

- temperature:       750.0000000
  free_energy:      1024.2785295
  entropy:          3468.3928990
  heat_capacity:    2724.0427985
  energy:           3625.5732038

- temperature:       760.0000000
  free_energy:       989.4135077
  entropy:          3504.5606235
  heat_capacity:    2737.1817654
  energy:           3652.8795816

- temperature:       770.0000000
  free_energy:       954.1883271
  entropy:          3540.4253350
  heat_capacity:    2750.0194999
  energy:           3680.3158350

- temperature:       780.0000000
  free_energy:       918.6059977
  entropy:          3575.9910268
  heat_capacity:    2762.5653378
  energy:           3707.8789986

- temperature:       790.0000000
  free_energy:       882.6694901
  entropy:          3611.2616566
  heat_capacity:    2774.8282686
  energy:           3735.5661988

- temperature:       800.0000000
  free_energy:       846.3817351
  entropy:          3646.2411435
  heat_capacity:    2786.8169478
  energy:           3763.3746499

- temperature:       810.0000000
  free_energy:       809.7456247
  entropy:          3680.9333662
  heat_capacity:    2798.5397081
  energy:           3791.3016514

- temperature:       820.0000000
  free_energy:       772.7640125
  entropy:          3715.3421609
  heat_capacity:    2810.0045713
  energy:           3819.3445844

- temperature:       830.0000000
  free_energy:       735.4397136
  entropy:          3749.4713196
  heat_capacity:    2821.2192601
  energy:           3847.5009089

- temperature:       840.0000000
  free_energy:       697.7755057
  entropy:          3783.3245890
  heat_capacity:    2832.1912087
  energy:           3875.7681605

- temperature:       850.0000000
  free_energy:       659.7741291
  entropy:          3816.9056691
  heat_capacity:    2842.9275745
  energy:           3904.1439478

- temperature:       860.0000000
  free_energy:       621.4382875
  entropy:          3850.2182119
  heat_capacity:    2853.4352489
  energy:           3932.6259497

- temperature:       870.0000000
  free_energy:       582.7706480
  entropy:          3883.2658214
  heat_capacity:    2863.7208674
  energy:           3961.2119127

- temperature:       880.0000000
  free_energy:       543.7738423
  entropy:          3916.0520522
  heat_capacity:    2873.7908204
  energy:           3989.8996482

- temperature:       890.0000000
  free_energy:       504.4504665
  entropy:          3948.5804092
  heat_capacity:    2883.6512627
  energy:           4018.6870307

- temperature:       900.0000000
  free_energy:       464.8030822
  entropy:          3980.8543475
  heat_capacity:    2893.3081236
  energy:           4047.5719949

- temperature:       910.0000000
  free_energy:       424.8342163
  entropy:          4012.8772718
  heat_capacity:    2902.7671158
  energy:           4076.5525337

- temperature:       920.0000000
  free_energy:       384.5463623
  entropy:          4044.6525367
  heat_capacity:    2912.0337446
  energy:           4105.6266960

- temperature:       930.0000000
  free_energy:       343.9419801
  entropy:          4076.1834462
  heat_capacity:    2921.1133164
  energy:           4134.7925850

- temperature:       940.0000000
  free_energy:       303.0234970
  entropy:          4107.4732541
  heat_capacity:    2930.0109473
  energy:           4164.0483559

- temperature:       950.0000000
  free_energy:       261.7933080
  entropy:          4138.5251642
  heat_capacity:    2938.7315708
  energy:           4193.3922140

- temperature:       960.0000000
  free_energy:       220.2537762
  entropy:          4169.3423302
  heat_capacity:    2947.2799456
  energy:           4222.8224132

- temperature:       970.0000000
  free_energy:       178.4072335
  entropy:          4199.9278562
  heat_capacity:    2955.6606629
  energy:           4252.3372541

- temperature:       980.0000000
  free_energy:       136.2559810
  entropy:          4230.2847973
  heat_capacity:    2963.8781535
  energy:           4281.9350824

- temperature:       990.0000000
  free_energy:        93.8022895
  entropy:          4260.4161594
  heat_capacity:    2971.9366947
  energy:           4311.6142873

- temperature:      1000.0000000
  free_energy:        51.0483999
  entropy:          4290.3249003
  heat_capacity:    2979.8404163
  energy:           4341.3733002

